M 0.0 nn 30 x 10 y 10 rp DSR
M 0.0 prop Propagation/TwoRayGround ant Antenna/OmniAntenna
Sconfig 0.00000 tap: on snoop: rts? on errs? on
Sconfig 0.00000 salvage: on !bd replies? on
Sconfig 0.00000 grat error: on grat reply: on
Sconfig 0.00000 $reply for props: on ring 0 search: on
Sconfig 0.00000 using MOBICACHE
s -t 2.556838879 -Hs 1 -Hd -2 -Ni 1 -Nx 4.00 -Ny 3.00 -Nz 0.00 -Ne -1.000000 -Nl AGT -Nw --- -Ma 0 -Md 0 -Ms 0 -Mt 0 -Is 1.0 -Id 2.0 -It tcp -Il 40 -If 0 -Ii 0 -Iv 32 -Pn tcp -Ps 0 -Pa 0 -Pf 0 -Po 0 
r -t 2.556838879 -Hs 1 -Hd -2 -Ni 1 -Nx 4.00 -Ny 3.00 -Nz 0.00 -Ne -1.000000 -Nl RTR -Nw --- -Ma 0 -Md 0 -Ms 0 -Mt 0 -Is 1.0 -Id 2.0 -It tcp -Il 40 -If 0 -Ii 0 -Iv 32 -Pn tcp -Ps 0 -Pa 0 -Pf 0 -Po 0 
s -t 2.565680752 -Hs 1 -Hd -1 -Ni 1 -Nx 4.00 -Ny 3.00 -Nz 0.00 -Ne -1.000000 -Nl RTR -Nw --- -Ma 0 -Md 0 -Ms 0 -Mt 0 -Is 1.255 -Id 2.255 -It DSR -Il 32 -If 0 -Ii 1 -Iv 32 -P dsr -Ph 1 -Pq 1 -Ps 1 -Pp 0 -Pn 1 -Pl 0 -Pe 0->0 -Pw 0 -Pm 0 -Pc 0 -Pb 0->0 
r -t 2.567012754 -Hs 4 -Hd -1 -Ni 4 -Nx 4.00 -Ny 2.50 -Nz 0.00 -Ne -1.000000 -Nl RTR -Nw --- -Ma 0 -Md ffffffff -Ms 1 -Mt 800 -Is 1.255 -Id 2.255 -It DSR -Il 32 -If 0 -Ii 1 -Iv 32 -P dsr -Ph 1 -Pq 1 -Ps 1 -Pp 0 -Pn 1 -Pl 0 -Pe 0->0 -Pw 0 -Pm 0 -Pc 0 -Pb 0->0 
r -t 2.567012755 -Hs 18 -Hd -1 -Ni 18 -Nx 3.70 -Ny 2.20 -Nz 0.00 -Ne -1.000000 -Nl RTR -Nw --- -Ma 0 -Md ffffffff -Ms 1 -Mt 800 -Is 1.255 -Id 2.255 -It DSR -Il 32 -If 0 -Ii 1 -Iv 32 -P dsr -Ph 1 -Pq 1 -Ps 1 -Pp 0 -Pn 1 -Pl 0 -Pe 0->0 -Pw 0 -Pm 0 -Pc 0 -Pb 0->0 
r -t 2.567012757 -Hs 0 -Hd -1 -Ni 0 -Nx 5.00 -Ny 2.00 -Nz 0.00 -Ne -1.000000 -Nl RTR -Nw --- -Ma 0 -Md ffffffff -Ms 1 -Mt 800 -Is 1.255 -Id 2.255 -It DSR -Il 32 -If 0 -Ii 1 -Iv 32 -P dsr -Ph 1 -Pq 1 -Ps 1 -Pp 0 -Pn 1 -Pl 0 -Pe 0->0 -Pw 0 -Pm 0 -Pc 0 -Pb 0->0 
r -t 2.567012758 -Hs 8 -Hd -1 -Ni 8 -Nx 3.00 -Ny 4.50 -Nz 0.00 -Ne -1.000000 -Nl RTR -Nw --- -Ma 0 -Md ffffffff -Ms 1 -Mt 800 -Is 1.255 -Id 2.255 -It DSR -Il 32 -If 0 -Ii 1 -Iv 32 -P dsr -Ph 1 -Pq 1 -Ps 1 -Pp 0 -Pn 1 -Pl 0 -Pe 0->0 -Pw 0 -Pm 0 -Pc 0 -Pb 0->0 
r -t 2.567012759 -Hs 5 -Hd -1 -Ni 5 -Nx 6.00 -Ny 3.50 -Nz 0.00 -Ne -1.000000 -Nl RTR -Nw --- -Ma 0 -Md ffffffff -Ms 1 -Mt 800 -Is 1.255 -Id 2.255 -It DSR -Il 32 -If 0 -Ii 1 -Iv 32 -P dsr -Ph 1 -Pq 1 -Ps 1 -Pp 0 -Pn 1 -Pl 0 -Pe 0->0 -Pw 0 -Pm 0 -Pc 0 -Pb 0->0 
r -t 2.567012763 -Hs 23 -Hd -1 -Ni 23 -Nx 6.80 -Ny 1.10 -Nz 0.00 -Ne -1.000000 -Nl RTR -Nw --- -Ma 0 -Md ffffffff -Ms 1 -Mt 800 -Is 1.255 -Id 2.255 -It DSR -Il 32 -If 0 -Ii 1 -Iv 32 -P dsr -Ph 1 -Pq 1 -Ps 1 -Pp 0 -Pn 1 -Pl 0 -Pe 0->0 -Pw 0 -Pm 0 -Pc 0 -Pb 0->0 
r -t 2.567012764 -Hs 27 -Hd -1 -Ni 27 -Nx 2.80 -Ny 6.30 -Nz 0.00 -Ne -1.000000 -Nl RTR -Nw --- -Ma 0 -Md ffffffff -Ms 1 -Mt 800 -Is 1.255 -Id 2.255 -It DSR -Il 32 -If 0 -Ii 1 -Iv 32 -P dsr -Ph 1 -Pq 1 -Ps 1 -Pp 0 -Pn 1 -Pl 0 -Pe 0->0 -Pw 0 -Pm 0 -Pc 0 -Pb 0->0 
r -t 2.567012764 -Hs 28 -Hd -1 -Ni 28 -Nx 5.20 -Ny 6.40 -Nz 0.00 -Ne -1.000000 -Nl RTR -Nw --- -Ma 0 -Md ffffffff -Ms 1 -Mt 800 -Is 1.255 -Id 2.255 -It DSR -Il 32 -If 0 -Ii 1 -Iv 32 -P dsr -Ph 1 -Pq 1 -Ps 1 -Pp 0 -Pn 1 -Pl 0 -Pe 0->0 -Pw 0 -Pm 0 -Pc 0 -Pb 0->0 
r -t 2.567012764 -Hs 7 -Hd -1 -Ni 7 -Nx 7.00 -Ny 5.00 -Nz 0.00 -Ne -1.000000 -Nl RTR -Nw --- -Ma 0 -Md ffffffff -Ms 1 -Mt 800 -Is 1.255 -Id 2.255 -It DSR -Il 32 -If 0 -Ii 1 -Iv 32 -P dsr -Ph 1 -Pq 1 -Ps 1 -Pp 0 -Pn 1 -Pl 0 -Pe 0->0 -Pw 0 -Pm 0 -Pc 0 -Pb 0->0 
r -t 2.567012765 -Hs 19 -Hd -1 -Ni 19 -Nx 7.40 -Ny 4.60 -Nz 0.00 -Ne -1.000000 -Nl RTR -Nw --- -Ma 0 -Md ffffffff -Ms 1 -Mt 800 -Is 1.255 -Id 2.255 -It DSR -Il 32 -If 0 -Ii 1 -Iv 32 -P dsr -Ph 1 -Pq 1 -Ps 1 -Pp 0 -Pn 1 -Pl 0 -Pe 0->0 -Pw 0 -Pm 0 -Pc 0 -Pb 0->0 
r -t 2.567012765 -Hs 10 -Hd -1 -Ni 10 -Nx 2.00 -Ny 6.30 -Nz 0.00 -Ne -1.000000 -Nl RTR -Nw --- -Ma 0 -Md ffffffff -Ms 1 -Mt 800 -Is 1.255 -Id 2.255 -It DSR -Il 32 -If 0 -Ii 1 -Iv 32 -P dsr -Ph 1 -Pq 1 -Ps 1 -Pp 0 -Pn 1 -Pl 0 -Pe 0->0 -Pw 0 -Pm 0 -Pc 0 -Pb 0->0 
r -t 2.567012766 -Hs 21 -Hd -1 -Ni 21 -Nx 5.10 -Ny 6.90 -Nz 0.00 -Ne -1.000000 -Nl RTR -Nw --- -Ma 0 -Md ffffffff -Ms 1 -Mt 800 -Is 1.255 -Id 2.255 -It DSR -Il 32 -If 0 -Ii 1 -Iv 32 -P dsr -Ph 1 -Pq 1 -Ps 1 -Pp 0 -Pn 1 -Pl 0 -Pe 0->0 -Pw 0 -Pm 0 -Pc 0 -Pb 0->0 
r -t 2.567012766 -Hs 6 -Hd -1 -Ni 6 -Nx 8.00 -Ny 2.00 -Nz 0.00 -Ne -1.000000 -Nl RTR -Nw --- -Ma 0 -Md ffffffff -Ms 1 -Mt 800 -Is 1.255 -Id 2.255 -It DSR -Il 32 -If 0 -Ii 1 -Iv 32 -P dsr -Ph 1 -Pq 1 -Ps 1 -Pp 0 -Pn 1 -Pl 0 -Pe 0->0 -Pw 0 -Pm 0 -Pc 0 -Pb 0->0 
r -t 2.567012767 -Hs 24 -Hd -1 -Ni 24 -Nx 8.30 -Ny 3.40 -Nz 0.00 -Ne -1.000000 -Nl RTR -Nw --- -Ma 0 -Md ffffffff -Ms 1 -Mt 800 -Is 1.255 -Id 2.255 -It DSR -Il 32 -If 0 -Ii 1 -Iv 32 -P dsr -Ph 1 -Pq 1 -Ps 1 -Pp 0 -Pn 1 -Pl 0 -Pe 0->0 -Pw 0 -Pm 0 -Pc 0 -Pb 0->0 
r -t 2.567012768 -Hs 13 -Hd -1 -Ni 13 -Nx 8.70 -Ny 2.80 -Nz 0.00 -Ne -1.000000 -Nl RTR -Nw --- -Ma 0 -Md ffffffff -Ms 1 -Mt 800 -Is 1.255 -Id 2.255 -It DSR -Il 32 -If 0 -Ii 1 -Iv 32 -P dsr -Ph 1 -Pq 1 -Ps 1 -Pp 0 -Pn 1 -Pl 0 -Pe 0->0 -Pw 0 -Pm 0 -Pc 0 -Pb 0->0 
r -t 2.567012768 -Hs 25 -Hd -1 -Ni 25 -Nx 2.60 -Ny 7.50 -Nz 0.00 -Ne -1.000000 -Nl RTR -Nw --- -Ma 0 -Md ffffffff -Ms 1 -Mt 800 -Is 1.255 -Id 2.255 -It DSR -Il 32 -If 0 -Ii 1 -Iv 32 -P dsr -Ph 1 -Pq 1 -Ps 1 -Pp 0 -Pn 1 -Pl 0 -Pe 0->0 -Pw 0 -Pm 0 -Pc 0 -Pb 0->0 
r -t 2.567012768 -Hs 3 -Hd -1 -Ni 3 -Nx 6.50 -Ny 7.00 -Nz 0.00 -Ne -1.000000 -Nl RTR -Nw --- -Ma 0 -Md ffffffff -Ms 1 -Mt 800 -Is 1.255 -Id 2.255 -It DSR -Il 32 -If 0 -Ii 1 -Iv 32 -P dsr -Ph 1 -Pq 1 -Ps 1 -Pp 0 -Pn 1 -Pl 0 -Pe 0->0 -Pw 0 -Pm 0 -Pc 0 -Pb 0->0 
r -t 2.567012769 -Hs 29 -Hd -1 -Ni 29 -Nx 2.20 -Ny 7.70 -Nz 0.00 -Ne -1.000000 -Nl RTR -Nw --- -Ma 0 -Md ffffffff -Ms 1 -Mt 800 -Is 1.255 -Id 2.255 -It DSR -Il 32 -If 0 -Ii 1 -Iv 32 -P dsr -Ph 1 -Pq 1 -Ps 1 -Pp 0 -Pn 1 -Pl 0 -Pe 0->0 -Pw 0 -Pm 0 -Pc 0 -Pb 0->0 
r -t 2.567012769 -Hs 20 -Hd -1 -Ni 20 -Nx 8.90 -Ny 1.30 -Nz 0.00 -Ne -1.000000 -Nl RTR -Nw --- -Ma 0 -Md ffffffff -Ms 1 -Mt 800 -Is 1.255 -Id 2.255 -It DSR -Il 32 -If 0 -Ii 1 -Iv 32 -P dsr -Ph 1 -Pq 1 -Ps 1 -Pp 0 -Pn 1 -Pl 0 -Pe 0->0 -Pw 0 -Pm 0 -Pc 0 -Pb 0->0 
r -t 2.567012770 -Hs 11 -Hd -1 -Ni 11 -Nx 4.80 -Ny 8.20 -Nz 0.00 -Ne -1.000000 -Nl RTR -Nw --- -Ma 0 -Md ffffffff -Ms 1 -Mt 800 -Is 1.255 -Id 2.255 -It DSR -Il 32 -If 0 -Ii 1 -Iv 32 -P dsr -Ph 1 -Pq 1 -Ps 1 -Pp 0 -Pn 1 -Pl 0 -Pe 0->0 -Pw 0 -Pm 0 -Pc 0 -Pb 0->0 
r -t 2.567012773 -Hs 16 -Hd -1 -Ni 16 -Nx 3.10 -Ny 9.10 -Nz 0.00 -Ne -1.000000 -Nl RTR -Nw --- -Ma 0 -Md ffffffff -Ms 1 -Mt 800 -Is 1.255 -Id 2.255 -It DSR -Il 32 -If 0 -Ii 1 -Iv 32 -P dsr -Ph 1 -Pq 1 -Ps 1 -Pp 0 -Pn 1 -Pl 0 -Pe 0->0 -Pw 0 -Pm 0 -Pc 0 -Pb 0->0 
r -t 2.567012773 -Hs 14 -Hd -1 -Ni 14 -Nx 5.40 -Ny 9.10 -Nz 0.00 -Ne -1.000000 -Nl RTR -Nw --- -Ma 0 -Md ffffffff -Ms 1 -Mt 800 -Is 1.255 -Id 2.255 -It DSR -Il 32 -If 0 -Ii 1 -Iv 32 -P dsr -Ph 1 -Pq 1 -Ps 1 -Pp 0 -Pn 1 -Pl 0 -Pe 0->0 -Pw 0 -Pm 0 -Pc 0 -Pb 0->0 
r -t 2.567012774 -Hs 12 -Hd -1 -Ni 12 -Nx 3.80 -Ny 9.50 -Nz 0.00 -Ne -1.000000 -Nl RTR -Nw --- -Ma 0 -Md ffffffff -Ms 1 -Mt 800 -Is 1.255 -Id 2.255 -It DSR -Il 32 -If 0 -Ii 1 -Iv 32 -P dsr -Ph 1 -Pq 1 -Ps 1 -Pp 0 -Pn 1 -Pl 0 -Pe 0->0 -Pw 0 -Pm 0 -Pc 0 -Pb 0->0 
r -t 2.567012774 -Hs 15 -Hd -1 -Ni 15 -Nx 7.30 -Ny 8.80 -Nz 0.00 -Ne -1.000000 -Nl RTR -Nw --- -Ma 0 -Md ffffffff -Ms 1 -Mt 800 -Is 1.255 -Id 2.255 -It DSR -Il 32 -If 0 -Ii 1 -Iv 32 -P dsr -Ph 1 -Pq 1 -Ps 1 -Pp 0 -Pn 1 -Pl 0 -Pe 0->0 -Pw 0 -Pm 0 -Pc 0 -Pb 0->0 
r -t 2.567012775 -Hs 22 -Hd -1 -Ni 22 -Nx 4.40 -Ny 9.90 -Nz 0.00 -Ne -1.000000 -Nl RTR -Nw --- -Ma 0 -Md ffffffff -Ms 1 -Mt 800 -Is 1.255 -Id 2.255 -It DSR -Il 32 -If 0 -Ii 1 -Iv 32 -P dsr -Ph 1 -Pq 1 -Ps 1 -Pp 0 -Pn 1 -Pl 0 -Pe 0->0 -Pw 0 -Pm 0 -Pc 0 -Pb 0->0 
r -t 2.567012775 -Hs 17 -Hd -1 -Ni 17 -Nx 2.90 -Ny 9.90 -Nz 0.00 -Ne -1.000000 -Nl RTR -Nw --- -Ma 0 -Md ffffffff -Ms 1 -Mt 800 -Is 1.255 -Id 2.255 -It DSR -Il 32 -If 0 -Ii 1 -Iv 32 -P dsr -Ph 1 -Pq 1 -Ps 1 -Pp 0 -Pn 1 -Pl 0 -Pe 0->0 -Pw 0 -Pm 0 -Pc 0 -Pb 0->0 
r -t 2.567012776 -Hs 2 -Hd -1 -Ni 2 -Nx 9.00 -Ny 8.00 -Nz 0.00 -Ne -1.000000 -Nl RTR -Nw --- -Ma 0 -Md ffffffff -Ms 1 -Mt 800 -Is 1.255 -Id 2.255 -It DSR -Il 32 -If 0 -Ii 1 -Iv 32 -P dsr -Ph 1 -Pq 1 -Ps 1 -Pp 0 -Pn 1 -Pl 0 -Pe 0->0 -Pw 0 -Pm 0 -Pc 0 -Pb 0->0 
r -t 2.567012776 -Hs 9 -Hd -1 -Ni 9 -Nx 1.00 -Ny 9.50 -Nz 0.00 -Ne -1.000000 -Nl RTR -Nw --- -Ma 0 -Md ffffffff -Ms 1 -Mt 800 -Is 1.255 -Id 2.255 -It DSR -Il 32 -If 0 -Ii 1 -Iv 32 -P dsr -Ph 1 -Pq 1 -Ps 1 -Pp 0 -Pn 1 -Pl 0 -Pe 0->0 -Pw 0 -Pm 0 -Pc 0 -Pb 0->0 
r -t 2.567012776 -Hs 26 -Hd -1 -Ni 26 -Nx 7.40 -Ny 9.40 -Nz 0.00 -Ne -1.000000 -Nl RTR -Nw --- -Ma 0 -Md ffffffff -Ms 1 -Mt 800 -Is 1.255 -Id 2.255 -It DSR -Il 32 -If 0 -Ii 1 -Iv 32 -P dsr -Ph 1 -Pq 1 -Ps 1 -Pp 0 -Pn 1 -Pl 0 -Pe 0->0 -Pw 0 -Pm 0 -Pc 0 -Pb 0->0 
s -t 2.576948795 -Hs 2 -Hd 1 -Ni 2 -Nx 9.00 -Ny 8.00 -Nz 0.00 -Ne -1.000000 -Nl RTR -Nw --- -Ma 0 -Md 0 -Ms 0 -Mt 0 -Is 2.255 -Id 1.255 -It DSR -Il 44 -If 0 -Ii 2 -Iv 254 -P dsr -Ph 2 -Pq 0 -Ps 1 -Pp 1 -Pn 1 -Pl 2 -Pe 1->2 -Pw 0 -Pm 0 -Pc 0 -Pb 0->0 
r -t 2.581407960 -Hs 1 -Hd 1 -Ni 1 -Nx 4.00 -Ny 3.00 -Nz 0.00 -Ne -1.000000 -Nl RTR -Nw --- -Ma 13a -Md 1 -Ms 2 -Mt 800 -Is 2.255 -Id 1.255 -It DSR -Il 44 -If 0 -Ii 2 -Iv 254 -P dsr -Ph 2 -Pq 0 -Ps 1 -Pp 1 -Pn 1 -Pl 2 -Pe 1->2 -Pw 0 -Pm 0 -Pc 0 -Pb 0->0 
SFESTs 2.581407960 _1_ 0 [1 -> 2] 1(1) to 2 [1 |2 ]
s -t 2.581407960 -Hs 1 -Hd 2 -Ni 1 -Nx 4.00 -Ny 3.00 -Nz 0.00 -Ne -1.000000 -Nl RTR -Nw --- -Ma 0 -Md 0 -Ms 0 -Mt 0 -Is 1.0 -Id 2.0 -It tcp -Il 76 -If 0 -Ii 0 -Iv 32 -Pn tcp -Ps 0 -Pa 0 -Pf 0 -Po 0 
r -t 2.583892031 -Hs 2 -Hd 2 -Ni 2 -Nx 9.00 -Ny 8.00 -Nz 0.00 -Ne -1.000000 -Nl RTR -Nw --- -Ma 13a -Md 2 -Ms 1 -Mt 800 -Is 1.0 -Id 2.0 -It tcp -Il 76 -If 0 -Ii 0 -Iv 32 -Pn tcp -Ps 0 -Pa 0 -Pf 1 -Po 0 
r -t 2.583892031 -Hs 2 -Hd 2 -Ni 2 -Nx 9.00 -Ny 8.00 -Nz 0.00 -Ne -1.000000 -Nl AGT -Nw --- -Ma 13a -Md 2 -Ms 1 -Mt 800 -Is 1.0 -Id 2.0 -It tcp -Il 40 -If 0 -Ii 0 -Iv 32 -Pn tcp -Ps 0 -Pa 0 -Pf 1 -Po 0 
s -t 2.583892031 -Hs 2 -Hd -2 -Ni 2 -Nx 9.00 -Ny 8.00 -Nz 0.00 -Ne -1.000000 -Nl AGT -Nw --- -Ma 0 -Md 0 -Ms 0 -Mt 0 -Is 2.0 -Id 1.0 -It ack -Il 40 -If 0 -Ii 3 -Iv 32 -Pn tcp -Ps 0 -Pa 0 -Pf 0 -Po 0 
r -t 2.583892031 -Hs 2 -Hd -2 -Ni 2 -Nx 9.00 -Ny 8.00 -Nz 0.00 -Ne -1.000000 -Nl RTR -Nw --- -Ma 0 -Md 0 -Ms 0 -Mt 0 -Is 2.0 -Id 1.0 -It ack -Il 40 -If 0 -Ii 3 -Iv 32 -Pn tcp -Ps 0 -Pa 0 -Pf 0 -Po 0 
SFESTs 2.583892031 _2_ 3 [2 -> 1] 1(1) to 1 [2 |1 ]
s -t 2.583892031 -Hs 2 -Hd 1 -Ni 2 -Nx 9.00 -Ny 8.00 -Nz 0.00 -Ne -1.000000 -Nl RTR -Nw --- -Ma 0 -Md 0 -Ms 0 -Mt 0 -Is 2.0 -Id 1.0 -It ack -Il 76 -If 0 -Ii 3 -Iv 32 -Pn tcp -Ps 0 -Pa 0 -Pf 0 -Po 0 
r -t 2.585976102 -Hs 1 -Hd 1 -Ni 1 -Nx 4.00 -Ny 3.00 -Nz 0.00 -Ne -1.000000 -Nl RTR -Nw --- -Ma 13a -Md 1 -Ms 2 -Mt 800 -Is 2.0 -Id 1.0 -It ack -Il 76 -If 0 -Ii 3 -Iv 32 -Pn tcp -Ps 0 -Pa 0 -Pf 1 -Po 0 
r -t 2.585976102 -Hs 1 -Hd 1 -Ni 1 -Nx 4.00 -Ny 3.00 -Nz 0.00 -Ne -1.000000 -Nl AGT -Nw --- -Ma 13a -Md 1 -Ms 2 -Mt 800 -Is 2.0 -Id 1.0 -It ack -Il 40 -If 0 -Ii 3 -Iv 32 -Pn tcp -Ps 0 -Pa 0 -Pf 1 -Po 0 
s -t 2.585976102 -Hs 1 -Hd -2 -Ni 1 -Nx 4.00 -Ny 3.00 -Nz 0.00 -Ne -1.000000 -Nl AGT -Nw --- -Ma 0 -Md 0 -Ms 0 -Mt 0 -Is 1.0 -Id 2.0 -It tcp -Il 552 -If 0 -Ii 4 -Iv 32 -Pn tcp -Ps 1 -Pa 0 -Pf 0 -Po 0 
r -t 2.585976102 -Hs 1 -Hd -2 -Ni 1 -Nx 4.00 -Ny 3.00 -Nz 0.00 -Ne -1.000000 -Nl RTR -Nw --- -Ma 0 -Md 0 -Ms 0 -Mt 0 -Is 1.0 -Id 2.0 -It tcp -Il 552 -If 0 -Ii 4 -Iv 32 -Pn tcp -Ps 1 -Pa 0 -Pf 0 -Po 0 
SFESTs 2.585976102 _1_ 4 [1 -> 2] 1(1) to 2 [1 |2 ]
s -t 2.585976102 -Hs 1 -Hd -2 -Ni 1 -Nx 4.00 -Ny 3.00 -Nz 0.00 -Ne -1.000000 -Nl AGT -Nw --- -Ma 0 -Md 0 -Ms 0 -Mt 0 -Is 1.0 -Id 2.0 -It tcp -Il 552 -If 0 -Ii 5 -Iv 32 -Pn tcp -Ps 2 -Pa 0 -Pf 0 -Po 0 
r -t 2.585976102 -Hs 1 -Hd -2 -Ni 1 -Nx 4.00 -Ny 3.00 -Nz 0.00 -Ne -1.000000 -Nl RTR -Nw --- -Ma 0 -Md 0 -Ms 0 -Mt 0 -Is 1.0 -Id 2.0 -It tcp -Il 552 -If 0 -Ii 5 -Iv 32 -Pn tcp -Ps 2 -Pa 0 -Pf 0 -Po 0 
SFESTs 2.585976102 _1_ 5 [1 -> 2] 1(1) to 2 [1 |2 ]
s -t 2.585976102 -Hs 1 -Hd 2 -Ni 1 -Nx 4.00 -Ny 3.00 -Nz 0.00 -Ne -1.000000 -Nl RTR -Nw --- -Ma 0 -Md 0 -Ms 0 -Mt 0 -Is 1.0 -Id 2.0 -It tcp -Il 588 -If 0 -Ii 4 -Iv 32 -Pn tcp -Ps 1 -Pa 0 -Pf 0 -Po 0 
s -t 2.585976102 -Hs 1 -Hd 2 -Ni 1 -Nx 4.00 -Ny 3.00 -Nz 0.00 -Ne -1.000000 -Nl RTR -Nw --- -Ma 0 -Md 0 -Ms 0 -Mt 0 -Is 1.0 -Id 2.0 -It tcp -Il 588 -If 0 -Ii 5 -Iv 32 -Pn tcp -Ps 2 -Pa 0 -Pf 0 -Po 0 
r -t 2.592176172 -Hs 2 -Hd 2 -Ni 2 -Nx 9.00 -Ny 8.00 -Nz 0.00 -Ne -1.000000 -Nl RTR -Nw --- -Ma 13a -Md 2 -Ms 1 -Mt 800 -Is 1.0 -Id 2.0 -It tcp -Il 588 -If 0 -Ii 4 -Iv 32 -Pn tcp -Ps 1 -Pa 0 -Pf 1 -Po 0 
r -t 2.592176172 -Hs 2 -Hd 2 -Ni 2 -Nx 9.00 -Ny 8.00 -Nz 0.00 -Ne -1.000000 -Nl AGT -Nw --- -Ma 13a -Md 2 -Ms 1 -Mt 800 -Is 1.0 -Id 2.0 -It tcp -Il 552 -If 0 -Ii 4 -Iv 32 -Pn tcp -Ps 1 -Pa 0 -Pf 1 -Po 0 
s -t 2.592176172 -Hs 2 -Hd -2 -Ni 2 -Nx 9.00 -Ny 8.00 -Nz 0.00 -Ne -1.000000 -Nl AGT -Nw --- -Ma 0 -Md 0 -Ms 0 -Mt 0 -Is 2.0 -Id 1.0 -It ack -Il 40 -If 0 -Ii 6 -Iv 32 -Pn tcp -Ps 1 -Pa 0 -Pf 0 -Po 0 
r -t 2.592176172 -Hs 2 -Hd -2 -Ni 2 -Nx 9.00 -Ny 8.00 -Nz 0.00 -Ne -1.000000 -Nl RTR -Nw --- -Ma 0 -Md 0 -Ms 0 -Mt 0 -Is 2.0 -Id 1.0 -It ack -Il 40 -If 0 -Ii 6 -Iv 32 -Pn tcp -Ps 1 -Pa 0 -Pf 0 -Po 0 
SFESTs 2.592176172 _2_ 6 [2 -> 1] 1(1) to 1 [2 |1 ]
s -t 2.592176172 -Hs 2 -Hd 1 -Ni 2 -Nx 9.00 -Ny 8.00 -Nz 0.00 -Ne -1.000000 -Nl RTR -Nw --- -Ma 0 -Md 0 -Ms 0 -Mt 0 -Is 2.0 -Id 1.0 -It ack -Il 76 -If 0 -Ii 6 -Iv 32 -Pn tcp -Ps 1 -Pa 0 -Pf 0 -Po 0 
r -t 2.594580243 -Hs 1 -Hd 1 -Ni 1 -Nx 4.00 -Ny 3.00 -Nz 0.00 -Ne -1.000000 -Nl RTR -Nw --- -Ma 13a -Md 1 -Ms 2 -Mt 800 -Is 2.0 -Id 1.0 -It ack -Il 76 -If 0 -Ii 6 -Iv 32 -Pn tcp -Ps 1 -Pa 0 -Pf 1 -Po 0 
r -t 2.594580243 -Hs 1 -Hd 1 -Ni 1 -Nx 4.00 -Ny 3.00 -Nz 0.00 -Ne -1.000000 -Nl AGT -Nw --- -Ma 13a -Md 1 -Ms 2 -Mt 800 -Is 2.0 -Id 1.0 -It ack -Il 40 -If 0 -Ii 6 -Iv 32 -Pn tcp -Ps 1 -Pa 0 -Pf 1 -Po 0 
s -t 2.594580243 -Hs 1 -Hd -2 -Ni 1 -Nx 4.00 -Ny 3.00 -Nz 0.00 -Ne -1.000000 -Nl AGT -Nw --- -Ma 0 -Md 0 -Ms 0 -Mt 0 -Is 1.0 -Id 2.0 -It tcp -Il 552 -If 0 -Ii 7 -Iv 32 -Pn tcp -Ps 3 -Pa 0 -Pf 0 -Po 0 
r -t 2.594580243 -Hs 1 -Hd -2 -Ni 1 -Nx 4.00 -Ny 3.00 -Nz 0.00 -Ne -1.000000 -Nl RTR -Nw --- -Ma 0 -Md 0 -Ms 0 -Mt 0 -Is 1.0 -Id 2.0 -It tcp -Il 552 -If 0 -Ii 7 -Iv 32 -Pn tcp -Ps 3 -Pa 0 -Pf 0 -Po 0 
SFs 2.594580243 _1_ 7 [1 -> 2] 1(0) to 2 
s -t 2.594580243 -Hs 1 -Hd -2 -Ni 1 -Nx 4.00 -Ny 3.00 -Nz 0.00 -Ne -1.000000 -Nl AGT -Nw --- -Ma 0 -Md 0 -Ms 0 -Mt 0 -Is 1.0 -Id 2.0 -It tcp -Il 552 -If 0 -Ii 8 -Iv 32 -Pn tcp -Ps 4 -Pa 0 -Pf 0 -Po 0 
r -t 2.594580243 -Hs 1 -Hd -2 -Ni 1 -Nx 4.00 -Ny 3.00 -Nz 0.00 -Ne -1.000000 -Nl RTR -Nw --- -Ma 0 -Md 0 -Ms 0 -Mt 0 -Is 1.0 -Id 2.0 -It tcp -Il 552 -If 0 -Ii 8 -Iv 32 -Pn tcp -Ps 4 -Pa 0 -Pf 0 -Po 0 
SFs 2.594580243 _1_ 8 [1 -> 2] 1(0) to 2 
s -t 2.594580243 -Hs 1 -Hd 2 -Ni 1 -Nx 4.00 -Ny 3.00 -Nz 0.00 -Ne -1.000000 -Nl RTR -Nw --- -Ma 0 -Md 0 -Ms 0 -Mt 0 -Is 1.0 -Id 2.0 -It tcp -Il 572 -If 0 -Ii 7 -Iv 32 -Pn tcp -Ps 3 -Pa 0 -Pf 0 -Po 0 
s -t 2.594580243 -Hs 1 -Hd 2 -Ni 1 -Nx 4.00 -Ny 3.00 -Nz 0.00 -Ne -1.000000 -Nl RTR -Nw --- -Ma 0 -Md 0 -Ms 0 -Mt 0 -Is 1.0 -Id 2.0 -It tcp -Il 572 -If 0 -Ii 8 -Iv 32 -Pn tcp -Ps 4 -Pa 0 -Pf 0 -Po 0 
r -t 2.600940314 -Hs 2 -Hd 2 -Ni 2 -Nx 9.00 -Ny 8.00 -Nz 0.00 -Ne -1.000000 -Nl RTR -Nw --- -Ma 13a -Md 2 -Ms 1 -Mt 800 -Is 1.0 -Id 2.0 -It tcp -Il 588 -If 0 -Ii 5 -Iv 32 -Pn tcp -Ps 2 -Pa 0 -Pf 1 -Po 0 
r -t 2.600940314 -Hs 2 -Hd 2 -Ni 2 -Nx 9.00 -Ny 8.00 -Nz 0.00 -Ne -1.000000 -Nl AGT -Nw --- -Ma 13a -Md 2 -Ms 1 -Mt 800 -Is 1.0 -Id 2.0 -It tcp -Il 552 -If 0 -Ii 5 -Iv 32 -Pn tcp -Ps 2 -Pa 0 -Pf 1 -Po 0 
s -t 2.600940314 -Hs 2 -Hd -2 -Ni 2 -Nx 9.00 -Ny 8.00 -Nz 0.00 -Ne -1.000000 -Nl AGT -Nw --- -Ma 0 -Md 0 -Ms 0 -Mt 0 -Is 2.0 -Id 1.0 -It ack -Il 40 -If 0 -Ii 9 -Iv 32 -Pn tcp -Ps 2 -Pa 0 -Pf 0 -Po 0 
r -t 2.600940314 -Hs 2 -Hd -2 -Ni 2 -Nx 9.00 -Ny 8.00 -Nz 0.00 -Ne -1.000000 -Nl RTR -Nw --- -Ma 0 -Md 0 -Ms 0 -Mt 0 -Is 2.0 -Id 1.0 -It ack -Il 40 -If 0 -Ii 9 -Iv 32 -Pn tcp -Ps 2 -Pa 0 -Pf 0 -Po 0 
SFESTs 2.600940314 _2_ 9 [2 -> 1] 1(1) to 1 [2 |1 ]
s -t 2.600940314 -Hs 2 -Hd 1 -Ni 2 -Nx 9.00 -Ny 8.00 -Nz 0.00 -Ne -1.000000 -Nl RTR -Nw --- -Ma 0 -Md 0 -Ms 0 -Mt 0 -Is 2.0 -Id 1.0 -It ack -Il 76 -If 0 -Ii 9 -Iv 32 -Pn tcp -Ps 2 -Pa 0 -Pf 0 -Po 0 
r -t 2.607012408 -Hs 2 -Hd 2 -Ni 2 -Nx 9.00 -Ny 8.00 -Nz 0.00 -Ne -1.000000 -Nl RTR -Nw --- -Ma 13a -Md 2 -Ms 1 -Mt 800 -Is 1.0 -Id 2.0 -It tcp -Il 572 -If 0 -Ii 7 -Iv 32 -Pn tcp -Ps 3 -Pa 0 -Pf 1 -Po 0 
r -t 2.607012408 -Hs 2 -Hd 2 -Ni 2 -Nx 9.00 -Ny 8.00 -Nz 0.00 -Ne -1.000000 -Nl AGT -Nw --- -Ma 13a -Md 2 -Ms 1 -Mt 800 -Is 1.0 -Id 2.0 -It tcp -Il 552 -If 0 -Ii 7 -Iv 32 -Pn tcp -Ps 3 -Pa 0 -Pf 1 -Po 0 
s -t 2.607012408 -Hs 2 -Hd -2 -Ni 2 -Nx 9.00 -Ny 8.00 -Nz 0.00 -Ne -1.000000 -Nl AGT -Nw --- -Ma 0 -Md 0 -Ms 0 -Mt 0 -Is 2.0 -Id 1.0 -It ack -Il 40 -If 0 -Ii 10 -Iv 32 -Pn tcp -Ps 3 -Pa 0 -Pf 0 -Po 0 
r -t 2.607012408 -Hs 2 -Hd -2 -Ni 2 -Nx 9.00 -Ny 8.00 -Nz 0.00 -Ne -1.000000 -Nl RTR -Nw --- -Ma 0 -Md 0 -Ms 0 -Mt 0 -Is 2.0 -Id 1.0 -It ack -Il 40 -If 0 -Ii 10 -Iv 32 -Pn tcp -Ps 3 -Pa 0 -Pf 0 -Po 0 
SFs 2.607012408 _2_ 10 [2 -> 1] 1(0) to 1 
s -t 2.607012408 -Hs 2 -Hd 1 -Ni 2 -Nx 9.00 -Ny 8.00 -Nz 0.00 -Ne -1.000000 -Nl RTR -Nw --- -Ma 0 -Md 0 -Ms 0 -Mt 0 -Is 2.0 -Id 1.0 -It ack -Il 60 -If 0 -Ii 10 -Iv 32 -Pn tcp -Ps 3 -Pa 0 -Pf 0 -Po 0 
r -t 2.613404502 -Hs 2 -Hd 2 -Ni 2 -Nx 9.00 -Ny 8.00 -Nz 0.00 -Ne -1.000000 -Nl RTR -Nw --- -Ma 13a -Md 2 -Ms 1 -Mt 800 -Is 1.0 -Id 2.0 -It tcp -Il 572 -If 0 -Ii 8 -Iv 32 -Pn tcp -Ps 4 -Pa 0 -Pf 1 -Po 0 
r -t 2.613404502 -Hs 2 -Hd 2 -Ni 2 -Nx 9.00 -Ny 8.00 -Nz 0.00 -Ne -1.000000 -Nl AGT -Nw --- -Ma 13a -Md 2 -Ms 1 -Mt 800 -Is 1.0 -Id 2.0 -It tcp -Il 552 -If 0 -Ii 8 -Iv 32 -Pn tcp -Ps 4 -Pa 0 -Pf 1 -Po 0 
s -t 2.613404502 -Hs 2 -Hd -2 -Ni 2 -Nx 9.00 -Ny 8.00 -Nz 0.00 -Ne -1.000000 -Nl AGT -Nw --- -Ma 0 -Md 0 -Ms 0 -Mt 0 -Is 2.0 -Id 1.0 -It ack -Il 40 -If 0 -Ii 11 -Iv 32 -Pn tcp -Ps 4 -Pa 0 -Pf 0 -Po 0 
r -t 2.613404502 -Hs 2 -Hd -2 -Ni 2 -Nx 9.00 -Ny 8.00 -Nz 0.00 -Ne -1.000000 -Nl RTR -Nw --- -Ma 0 -Md 0 -Ms 0 -Mt 0 -Is 2.0 -Id 1.0 -It ack -Il 40 -If 0 -Ii 11 -Iv 32 -Pn tcp -Ps 4 -Pa 0 -Pf 0 -Po 0 
SFs 2.613404502 _2_ 11 [2 -> 1] 1(0) to 1 
s -t 2.613404502 -Hs 2 -Hd 1 -Ni 2 -Nx 9.00 -Ny 8.00 -Nz 0.00 -Ne -1.000000 -Nl RTR -Nw --- -Ma 0 -Md 0 -Ms 0 -Mt 0 -Is 2.0 -Id 1.0 -It ack -Il 60 -If 0 -Ii 11 -Iv 32 -Pn tcp -Ps 4 -Pa 0 -Pf 0 -Po 0 
r -t 2.615608573 -Hs 1 -Hd 1 -Ni 1 -Nx 4.00 -Ny 3.00 -Nz 0.00 -Ne -1.000000 -Nl RTR -Nw --- -Ma 13a -Md 1 -Ms 2 -Mt 800 -Is 2.0 -Id 1.0 -It ack -Il 76 -If 0 -Ii 9 -Iv 32 -Pn tcp -Ps 2 -Pa 0 -Pf 1 -Po 0 
r -t 2.615608573 -Hs 1 -Hd 1 -Ni 1 -Nx 4.00 -Ny 3.00 -Nz 0.00 -Ne -1.000000 -Nl AGT -Nw --- -Ma 13a -Md 1 -Ms 2 -Mt 800 -Is 2.0 -Id 1.0 -It ack -Il 40 -If 0 -Ii 9 -Iv 32 -Pn tcp -Ps 2 -Pa 0 -Pf 1 -Po 0 
s -t 2.615608573 -Hs 1 -Hd -2 -Ni 1 -Nx 4.00 -Ny 3.00 -Nz 0.00 -Ne -1.000000 -Nl AGT -Nw --- -Ma 0 -Md 0 -Ms 0 -Mt 0 -Is 1.0 -Id 2.0 -It tcp -Il 552 -If 0 -Ii 12 -Iv 32 -Pn tcp -Ps 5 -Pa 0 -Pf 0 -Po 0 
r -t 2.615608573 -Hs 1 -Hd -2 -Ni 1 -Nx 4.00 -Ny 3.00 -Nz 0.00 -Ne -1.000000 -Nl RTR -Nw --- -Ma 0 -Md 0 -Ms 0 -Mt 0 -Is 1.0 -Id 2.0 -It tcp -Il 552 -If 0 -Ii 12 -Iv 32 -Pn tcp -Ps 5 -Pa 0 -Pf 0 -Po 0 
SFs 2.615608573 _1_ 12 [1 -> 2] 1(0) to 2 
s -t 2.615608573 -Hs 1 -Hd -2 -Ni 1 -Nx 4.00 -Ny 3.00 -Nz 0.00 -Ne -1.000000 -Nl AGT -Nw --- -Ma 0 -Md 0 -Ms 0 -Mt 0 -Is 1.0 -Id 2.0 -It tcp -Il 552 -If 0 -Ii 13 -Iv 32 -Pn tcp -Ps 6 -Pa 0 -Pf 0 -Po 0 
r -t 2.615608573 -Hs 1 -Hd -2 -Ni 1 -Nx 4.00 -Ny 3.00 -Nz 0.00 -Ne -1.000000 -Nl RTR -Nw --- -Ma 0 -Md 0 -Ms 0 -Mt 0 -Is 1.0 -Id 2.0 -It tcp -Il 552 -If 0 -Ii 13 -Iv 32 -Pn tcp -Ps 6 -Pa 0 -Pf 0 -Po 0 
SFs 2.615608573 _1_ 13 [1 -> 2] 1(0) to 2 
s -t 2.615608573 -Hs 1 -Hd 2 -Ni 1 -Nx 4.00 -Ny 3.00 -Nz 0.00 -Ne -1.000000 -Nl RTR -Nw --- -Ma 0 -Md 0 -Ms 0 -Mt 0 -Is 1.0 -Id 2.0 -It tcp -Il 572 -If 0 -Ii 12 -Iv 32 -Pn tcp -Ps 5 -Pa 0 -Pf 0 -Po 0 
s -t 2.615608573 -Hs 1 -Hd 2 -Ni 1 -Nx 4.00 -Ny 3.00 -Nz 0.00 -Ne -1.000000 -Nl RTR -Nw --- -Ma 0 -Md 0 -Ms 0 -Mt 0 -Is 1.0 -Id 2.0 -It tcp -Il 572 -If 0 -Ii 13 -Iv 32 -Pn tcp -Ps 6 -Pa 0 -Pf 0 -Po 0 
r -t 2.622060644 -Hs 2 -Hd 2 -Ni 2 -Nx 9.00 -Ny 8.00 -Nz 0.00 -Ne -1.000000 -Nl RTR -Nw --- -Ma 13a -Md 2 -Ms 1 -Mt 800 -Is 1.0 -Id 2.0 -It tcp -Il 572 -If 0 -Ii 12 -Iv 32 -Pn tcp -Ps 5 -Pa 0 -Pf 1 -Po 0 
r -t 2.622060644 -Hs 2 -Hd 2 -Ni 2 -Nx 9.00 -Ny 8.00 -Nz 0.00 -Ne -1.000000 -Nl AGT -Nw --- -Ma 13a -Md 2 -Ms 1 -Mt 800 -Is 1.0 -Id 2.0 -It tcp -Il 552 -If 0 -Ii 12 -Iv 32 -Pn tcp -Ps 5 -Pa 0 -Pf 1 -Po 0 
s -t 2.622060644 -Hs 2 -Hd -2 -Ni 2 -Nx 9.00 -Ny 8.00 -Nz 0.00 -Ne -1.000000 -Nl AGT -Nw --- -Ma 0 -Md 0 -Ms 0 -Mt 0 -Is 2.0 -Id 1.0 -It ack -Il 40 -If 0 -Ii 14 -Iv 32 -Pn tcp -Ps 5 -Pa 0 -Pf 0 -Po 0 
r -t 2.622060644 -Hs 2 -Hd -2 -Ni 2 -Nx 9.00 -Ny 8.00 -Nz 0.00 -Ne -1.000000 -Nl RTR -Nw --- -Ma 0 -Md 0 -Ms 0 -Mt 0 -Is 2.0 -Id 1.0 -It ack -Il 40 -If 0 -Ii 14 -Iv 32 -Pn tcp -Ps 5 -Pa 0 -Pf 0 -Po 0 
SFs 2.622060644 _2_ 14 [2 -> 1] 1(0) to 1 
s -t 2.622060644 -Hs 2 -Hd 1 -Ni 2 -Nx 9.00 -Ny 8.00 -Nz 0.00 -Ne -1.000000 -Nl RTR -Nw --- -Ma 0 -Md 0 -Ms 0 -Mt 0 -Is 2.0 -Id 1.0 -It ack -Il 60 -If 0 -Ii 14 -Iv 32 -Pn tcp -Ps 5 -Pa 0 -Pf 0 -Po 0 
r -t 2.624056714 -Hs 1 -Hd 1 -Ni 1 -Nx 4.00 -Ny 3.00 -Nz 0.00 -Ne -1.000000 -Nl RTR -Nw --- -Ma 13a -Md 1 -Ms 2 -Mt 800 -Is 2.0 -Id 1.0 -It ack -Il 60 -If 0 -Ii 10 -Iv 32 -Pn tcp -Ps 3 -Pa 0 -Pf 1 -Po 0 
r -t 2.624056714 -Hs 1 -Hd 1 -Ni 1 -Nx 4.00 -Ny 3.00 -Nz 0.00 -Ne -1.000000 -Nl AGT -Nw --- -Ma 13a -Md 1 -Ms 2 -Mt 800 -Is 2.0 -Id 1.0 -It ack -Il 40 -If 0 -Ii 10 -Iv 32 -Pn tcp -Ps 3 -Pa 0 -Pf 1 -Po 0 
s -t 2.624056714 -Hs 1 -Hd -2 -Ni 1 -Nx 4.00 -Ny 3.00 -Nz 0.00 -Ne -1.000000 -Nl AGT -Nw --- -Ma 0 -Md 0 -Ms 0 -Mt 0 -Is 1.0 -Id 2.0 -It tcp -Il 552 -If 0 -Ii 15 -Iv 32 -Pn tcp -Ps 7 -Pa 0 -Pf 0 -Po 0 
r -t 2.624056714 -Hs 1 -Hd -2 -Ni 1 -Nx 4.00 -Ny 3.00 -Nz 0.00 -Ne -1.000000 -Nl RTR -Nw --- -Ma 0 -Md 0 -Ms 0 -Mt 0 -Is 1.0 -Id 2.0 -It tcp -Il 552 -If 0 -Ii 15 -Iv 32 -Pn tcp -Ps 7 -Pa 0 -Pf 0 -Po 0 
SFs 2.624056714 _1_ 15 [1 -> 2] 1(0) to 2 
s -t 2.624056714 -Hs 1 -Hd -2 -Ni 1 -Nx 4.00 -Ny 3.00 -Nz 0.00 -Ne -1.000000 -Nl AGT -Nw --- -Ma 0 -Md 0 -Ms 0 -Mt 0 -Is 1.0 -Id 2.0 -It tcp -Il 552 -If 0 -Ii 16 -Iv 32 -Pn tcp -Ps 8 -Pa 0 -Pf 0 -Po 0 
r -t 2.624056714 -Hs 1 -Hd -2 -Ni 1 -Nx 4.00 -Ny 3.00 -Nz 0.00 -Ne -1.000000 -Nl RTR -Nw --- -Ma 0 -Md 0 -Ms 0 -Mt 0 -Is 1.0 -Id 2.0 -It tcp -Il 552 -If 0 -Ii 16 -Iv 32 -Pn tcp -Ps 8 -Pa 0 -Pf 0 -Po 0 
SFs 2.624056714 _1_ 16 [1 -> 2] 1(0) to 2 
s -t 2.624056714 -Hs 1 -Hd 2 -Ni 1 -Nx 4.00 -Ny 3.00 -Nz 0.00 -Ne -1.000000 -Nl RTR -Nw --- -Ma 0 -Md 0 -Ms 0 -Mt 0 -Is 1.0 -Id 2.0 -It tcp -Il 572 -If 0 -Ii 15 -Iv 32 -Pn tcp -Ps 7 -Pa 0 -Pf 0 -Po 0 
s -t 2.624056714 -Hs 1 -Hd 2 -Ni 1 -Nx 4.00 -Ny 3.00 -Nz 0.00 -Ne -1.000000 -Nl RTR -Nw --- -Ma 0 -Md 0 -Ms 0 -Mt 0 -Is 1.0 -Id 2.0 -It tcp -Il 572 -If 0 -Ii 16 -Iv 32 -Pn tcp -Ps 8 -Pa 0 -Pf 0 -Po 0 
r -t 2.626132809 -Hs 1 -Hd 1 -Ni 1 -Nx 4.00 -Ny 3.00 -Nz 0.00 -Ne -1.000000 -Nl RTR -Nw --- -Ma 13a -Md 1 -Ms 2 -Mt 800 -Is 2.0 -Id 1.0 -It ack -Il 60 -If 0 -Ii 11 -Iv 32 -Pn tcp -Ps 4 -Pa 0 -Pf 1 -Po 0 
r -t 2.626132809 -Hs 1 -Hd 1 -Ni 1 -Nx 4.00 -Ny 3.00 -Nz 0.00 -Ne -1.000000 -Nl AGT -Nw --- -Ma 13a -Md 1 -Ms 2 -Mt 800 -Is 2.0 -Id 1.0 -It ack -Il 40 -If 0 -Ii 11 -Iv 32 -Pn tcp -Ps 4 -Pa 0 -Pf 1 -Po 0 
s -t 2.626132809 -Hs 1 -Hd -2 -Ni 1 -Nx 4.00 -Ny 3.00 -Nz 0.00 -Ne -1.000000 -Nl AGT -Nw --- -Ma 0 -Md 0 -Ms 0 -Mt 0 -Is 1.0 -Id 2.0 -It tcp -Il 552 -If 0 -Ii 17 -Iv 32 -Pn tcp -Ps 9 -Pa 0 -Pf 0 -Po 0 
r -t 2.626132809 -Hs 1 -Hd -2 -Ni 1 -Nx 4.00 -Ny 3.00 -Nz 0.00 -Ne -1.000000 -Nl RTR -Nw --- -Ma 0 -Md 0 -Ms 0 -Mt 0 -Is 1.0 -Id 2.0 -It tcp -Il 552 -If 0 -Ii 17 -Iv 32 -Pn tcp -Ps 9 -Pa 0 -Pf 0 -Po 0 
SFs 2.626132809 _1_ 17 [1 -> 2] 1(0) to 2 
s -t 2.626132809 -Hs 1 -Hd -2 -Ni 1 -Nx 4.00 -Ny 3.00 -Nz 0.00 -Ne -1.000000 -Nl AGT -Nw --- -Ma 0 -Md 0 -Ms 0 -Mt 0 -Is 1.0 -Id 2.0 -It tcp -Il 552 -If 0 -Ii 18 -Iv 32 -Pn tcp -Ps 10 -Pa 0 -Pf 0 -Po 0 
r -t 2.626132809 -Hs 1 -Hd -2 -Ni 1 -Nx 4.00 -Ny 3.00 -Nz 0.00 -Ne -1.000000 -Nl RTR -Nw --- -Ma 0 -Md 0 -Ms 0 -Mt 0 -Is 1.0 -Id 2.0 -It tcp -Il 552 -If 0 -Ii 18 -Iv 32 -Pn tcp -Ps 10 -Pa 0 -Pf 0 -Po 0 
SFs 2.626132809 _1_ 18 [1 -> 2] 1(0) to 2 
s -t 2.626132809 -Hs 1 -Hd 2 -Ni 1 -Nx 4.00 -Ny 3.00 -Nz 0.00 -Ne -1.000000 -Nl RTR -Nw --- -Ma 0 -Md 0 -Ms 0 -Mt 0 -Is 1.0 -Id 2.0 -It tcp -Il 572 -If 0 -Ii 17 -Iv 32 -Pn tcp -Ps 9 -Pa 0 -Pf 0 -Po 0 
s -t 2.626132809 -Hs 1 -Hd 2 -Ni 1 -Nx 4.00 -Ny 3.00 -Nz 0.00 -Ne -1.000000 -Nl RTR -Nw --- -Ma 0 -Md 0 -Ms 0 -Mt 0 -Is 1.0 -Id 2.0 -It tcp -Il 572 -If 0 -Ii 18 -Iv 32 -Pn tcp -Ps 10 -Pa 0 -Pf 0 -Po 0 
r -t 2.632204879 -Hs 2 -Hd 2 -Ni 2 -Nx 9.00 -Ny 8.00 -Nz 0.00 -Ne -1.000000 -Nl RTR -Nw --- -Ma 13a -Md 2 -Ms 1 -Mt 800 -Is 1.0 -Id 2.0 -It tcp -Il 572 -If 0 -Ii 13 -Iv 32 -Pn tcp -Ps 6 -Pa 0 -Pf 1 -Po 0 
r -t 2.632204879 -Hs 2 -Hd 2 -Ni 2 -Nx 9.00 -Ny 8.00 -Nz 0.00 -Ne -1.000000 -Nl AGT -Nw --- -Ma 13a -Md 2 -Ms 1 -Mt 800 -Is 1.0 -Id 2.0 -It tcp -Il 552 -If 0 -Ii 13 -Iv 32 -Pn tcp -Ps 6 -Pa 0 -Pf 1 -Po 0 
s -t 2.632204879 -Hs 2 -Hd -2 -Ni 2 -Nx 9.00 -Ny 8.00 -Nz 0.00 -Ne -1.000000 -Nl AGT -Nw --- -Ma 0 -Md 0 -Ms 0 -Mt 0 -Is 2.0 -Id 1.0 -It ack -Il 40 -If 0 -Ii 19 -Iv 32 -Pn tcp -Ps 6 -Pa 0 -Pf 0 -Po 0 
r -t 2.632204879 -Hs 2 -Hd -2 -Ni 2 -Nx 9.00 -Ny 8.00 -Nz 0.00 -Ne -1.000000 -Nl RTR -Nw --- -Ma 0 -Md 0 -Ms 0 -Mt 0 -Is 2.0 -Id 1.0 -It ack -Il 40 -If 0 -Ii 19 -Iv 32 -Pn tcp -Ps 6 -Pa 0 -Pf 0 -Po 0 
SFs 2.632204879 _2_ 19 [2 -> 1] 1(0) to 1 
s -t 2.632204879 -Hs 2 -Hd 1 -Ni 2 -Nx 9.00 -Ny 8.00 -Nz 0.00 -Ne -1.000000 -Nl RTR -Nw --- -Ma 0 -Md 0 -Ms 0 -Mt 0 -Is 2.0 -Id 1.0 -It ack -Il 60 -If 0 -Ii 19 -Iv 32 -Pn tcp -Ps 6 -Pa 0 -Pf 0 -Po 0 
r -t 2.634200950 -Hs 1 -Hd 1 -Ni 1 -Nx 4.00 -Ny 3.00 -Nz 0.00 -Ne -1.000000 -Nl RTR -Nw --- -Ma 13a -Md 1 -Ms 2 -Mt 800 -Is 2.0 -Id 1.0 -It ack -Il 60 -If 0 -Ii 14 -Iv 32 -Pn tcp -Ps 5 -Pa 0 -Pf 1 -Po 0 
r -t 2.634200950 -Hs 1 -Hd 1 -Ni 1 -Nx 4.00 -Ny 3.00 -Nz 0.00 -Ne -1.000000 -Nl AGT -Nw --- -Ma 13a -Md 1 -Ms 2 -Mt 800 -Is 2.0 -Id 1.0 -It ack -Il 40 -If 0 -Ii 14 -Iv 32 -Pn tcp -Ps 5 -Pa 0 -Pf 1 -Po 0 
s -t 2.634200950 -Hs 1 -Hd -2 -Ni 1 -Nx 4.00 -Ny 3.00 -Nz 0.00 -Ne -1.000000 -Nl AGT -Nw --- -Ma 0 -Md 0 -Ms 0 -Mt 0 -Is 1.0 -Id 2.0 -It tcp -Il 552 -If 0 -Ii 20 -Iv 32 -Pn tcp -Ps 11 -Pa 0 -Pf 0 -Po 0 
r -t 2.634200950 -Hs 1 -Hd -2 -Ni 1 -Nx 4.00 -Ny 3.00 -Nz 0.00 -Ne -1.000000 -Nl RTR -Nw --- -Ma 0 -Md 0 -Ms 0 -Mt 0 -Is 1.0 -Id 2.0 -It tcp -Il 552 -If 0 -Ii 20 -Iv 32 -Pn tcp -Ps 11 -Pa 0 -Pf 0 -Po 0 
SFs 2.634200950 _1_ 20 [1 -> 2] 1(0) to 2 
s -t 2.634200950 -Hs 1 -Hd -2 -Ni 1 -Nx 4.00 -Ny 3.00 -Nz 0.00 -Ne -1.000000 -Nl AGT -Nw --- -Ma 0 -Md 0 -Ms 0 -Mt 0 -Is 1.0 -Id 2.0 -It tcp -Il 552 -If 0 -Ii 21 -Iv 32 -Pn tcp -Ps 12 -Pa 0 -Pf 0 -Po 0 
r -t 2.634200950 -Hs 1 -Hd -2 -Ni 1 -Nx 4.00 -Ny 3.00 -Nz 0.00 -Ne -1.000000 -Nl RTR -Nw --- -Ma 0 -Md 0 -Ms 0 -Mt 0 -Is 1.0 -Id 2.0 -It tcp -Il 552 -If 0 -Ii 21 -Iv 32 -Pn tcp -Ps 12 -Pa 0 -Pf 0 -Po 0 
SFs 2.634200950 _1_ 21 [1 -> 2] 1(0) to 2 
s -t 2.634200950 -Hs 1 -Hd 2 -Ni 1 -Nx 4.00 -Ny 3.00 -Nz 0.00 -Ne -1.000000 -Nl RTR -Nw --- -Ma 0 -Md 0 -Ms 0 -Mt 0 -Is 1.0 -Id 2.0 -It tcp -Il 572 -If 0 -Ii 20 -Iv 32 -Pn tcp -Ps 11 -Pa 0 -Pf 0 -Po 0 
s -t 2.634200950 -Hs 1 -Hd 2 -Ni 1 -Nx 4.00 -Ny 3.00 -Nz 0.00 -Ne -1.000000 -Nl RTR -Nw --- -Ma 0 -Md 0 -Ms 0 -Mt 0 -Is 1.0 -Id 2.0 -It tcp -Il 572 -If 0 -Ii 21 -Iv 32 -Pn tcp -Ps 12 -Pa 0 -Pf 0 -Po 0 
r -t 2.636217044 -Hs 1 -Hd 1 -Ni 1 -Nx 4.00 -Ny 3.00 -Nz 0.00 -Ne -1.000000 -Nl RTR -Nw --- -Ma 13a -Md 1 -Ms 2 -Mt 800 -Is 2.0 -Id 1.0 -It ack -Il 60 -If 0 -Ii 19 -Iv 32 -Pn tcp -Ps 6 -Pa 0 -Pf 1 -Po 0 
r -t 2.636217044 -Hs 1 -Hd 1 -Ni 1 -Nx 4.00 -Ny 3.00 -Nz 0.00 -Ne -1.000000 -Nl AGT -Nw --- -Ma 13a -Md 1 -Ms 2 -Mt 800 -Is 2.0 -Id 1.0 -It ack -Il 40 -If 0 -Ii 19 -Iv 32 -Pn tcp -Ps 6 -Pa 0 -Pf 1 -Po 0 
s -t 2.636217044 -Hs 1 -Hd -2 -Ni 1 -Nx 4.00 -Ny 3.00 -Nz 0.00 -Ne -1.000000 -Nl AGT -Nw --- -Ma 0 -Md 0 -Ms 0 -Mt 0 -Is 1.0 -Id 2.0 -It tcp -Il 552 -If 0 -Ii 22 -Iv 32 -Pn tcp -Ps 13 -Pa 0 -Pf 0 -Po 0 
r -t 2.636217044 -Hs 1 -Hd -2 -Ni 1 -Nx 4.00 -Ny 3.00 -Nz 0.00 -Ne -1.000000 -Nl RTR -Nw --- -Ma 0 -Md 0 -Ms 0 -Mt 0 -Is 1.0 -Id 2.0 -It tcp -Il 552 -If 0 -Ii 22 -Iv 32 -Pn tcp -Ps 13 -Pa 0 -Pf 0 -Po 0 
SFs 2.636217044 _1_ 22 [1 -> 2] 1(0) to 2 
s -t 2.636217044 -Hs 1 -Hd -2 -Ni 1 -Nx 4.00 -Ny 3.00 -Nz 0.00 -Ne -1.000000 -Nl AGT -Nw --- -Ma 0 -Md 0 -Ms 0 -Mt 0 -Is 1.0 -Id 2.0 -It tcp -Il 552 -If 0 -Ii 23 -Iv 32 -Pn tcp -Ps 14 -Pa 0 -Pf 0 -Po 0 
r -t 2.636217044 -Hs 1 -Hd -2 -Ni 1 -Nx 4.00 -Ny 3.00 -Nz 0.00 -Ne -1.000000 -Nl RTR -Nw --- -Ma 0 -Md 0 -Ms 0 -Mt 0 -Is 1.0 -Id 2.0 -It tcp -Il 552 -If 0 -Ii 23 -Iv 32 -Pn tcp -Ps 14 -Pa 0 -Pf 0 -Po 0 
SFs 2.636217044 _1_ 23 [1 -> 2] 1(0) to 2 
s -t 2.636217044 -Hs 1 -Hd 2 -Ni 1 -Nx 4.00 -Ny 3.00 -Nz 0.00 -Ne -1.000000 -Nl RTR -Nw --- -Ma 0 -Md 0 -Ms 0 -Mt 0 -Is 1.0 -Id 2.0 -It tcp -Il 572 -If 0 -Ii 22 -Iv 32 -Pn tcp -Ps 13 -Pa 0 -Pf 0 -Po 0 
s -t 2.636217044 -Hs 1 -Hd 2 -Ni 1 -Nx 4.00 -Ny 3.00 -Nz 0.00 -Ne -1.000000 -Nl RTR -Nw --- -Ma 0 -Md 0 -Ms 0 -Mt 0 -Is 1.0 -Id 2.0 -It tcp -Il 572 -If 0 -Ii 23 -Iv 32 -Pn tcp -Ps 14 -Pa 0 -Pf 0 -Po 0 
r -t 2.642429115 -Hs 2 -Hd 2 -Ni 2 -Nx 9.00 -Ny 8.00 -Nz 0.00 -Ne -1.000000 -Nl RTR -Nw --- -Ma 13a -Md 2 -Ms 1 -Mt 800 -Is 1.0 -Id 2.0 -It tcp -Il 572 -If 0 -Ii 15 -Iv 32 -Pn tcp -Ps 7 -Pa 0 -Pf 1 -Po 0 
r -t 2.642429115 -Hs 2 -Hd 2 -Ni 2 -Nx 9.00 -Ny 8.00 -Nz 0.00 -Ne -1.000000 -Nl AGT -Nw --- -Ma 13a -Md 2 -Ms 1 -Mt 800 -Is 1.0 -Id 2.0 -It tcp -Il 552 -If 0 -Ii 15 -Iv 32 -Pn tcp -Ps 7 -Pa 0 -Pf 1 -Po 0 
s -t 2.642429115 -Hs 2 -Hd -2 -Ni 2 -Nx 9.00 -Ny 8.00 -Nz 0.00 -Ne -1.000000 -Nl AGT -Nw --- -Ma 0 -Md 0 -Ms 0 -Mt 0 -Is 2.0 -Id 1.0 -It ack -Il 40 -If 0 -Ii 24 -Iv 32 -Pn tcp -Ps 7 -Pa 0 -Pf 0 -Po 0 
r -t 2.642429115 -Hs 2 -Hd -2 -Ni 2 -Nx 9.00 -Ny 8.00 -Nz 0.00 -Ne -1.000000 -Nl RTR -Nw --- -Ma 0 -Md 0 -Ms 0 -Mt 0 -Is 2.0 -Id 1.0 -It ack -Il 40 -If 0 -Ii 24 -Iv 32 -Pn tcp -Ps 7 -Pa 0 -Pf 0 -Po 0 
SFs 2.642429115 _2_ 24 [2 -> 1] 1(0) to 1 
s -t 2.642429115 -Hs 2 -Hd 1 -Ni 2 -Nx 9.00 -Ny 8.00 -Nz 0.00 -Ne -1.000000 -Nl RTR -Nw --- -Ma 0 -Md 0 -Ms 0 -Mt 0 -Is 2.0 -Id 1.0 -It ack -Il 60 -If 0 -Ii 24 -Iv 32 -Pn tcp -Ps 7 -Pa 0 -Pf 0 -Po 0 
r -t 2.648681209 -Hs 2 -Hd 2 -Ni 2 -Nx 9.00 -Ny 8.00 -Nz 0.00 -Ne -1.000000 -Nl RTR -Nw --- -Ma 13a -Md 2 -Ms 1 -Mt 800 -Is 1.0 -Id 2.0 -It tcp -Il 572 -If 0 -Ii 16 -Iv 32 -Pn tcp -Ps 8 -Pa 0 -Pf 1 -Po 0 